<PP_INFO>
Generated using Vanderbilt code, version   7  3  4                              
Author: unknown    Generation date:   27    2 2007                              
Automatically converted from original format                                    
    1        The Pseudo was generated with a Scalar-Relativistic Calculation
  1.80000000000E+00    Local Potential cutoff radius
nl pn  l   occ               Rcut            Rcut US             E pseu
4S  4  0  2.00      1.00000000000      2.00000000000     -3.00603537832
4P  4  1  6.00      1.00000000000      1.80000000000     -1.67742677681
5S  5  0  2.00      1.00000000000      2.00000000000     -0.25916776309
</PP_INFO>


<PP_HEADER>
   0                   Version Number
  st                   Element
   US                  Ultrasoft pseudopotential
    F                  Nonlinear Core Correction
SLA  PW   PBE  PBE     PBE  Exchange-Correlation functional
   10.00000000000      Z valence
  -61.43608961306      Total energy
  0.0000000  0.0000000 Suggested cutoff for wfc and rho
    2                  Max angular momentum component
  883                  Number of points in mesh
    3    6             Number of Wavefunctions, Number of Projectors
 Wavefunctions         nl  l   occ
                       4S  0  2.00
                       4P  1  6.00
                       5S  0  2.00
</PP_HEADER>


<PP_MESH>
  <PP_R>
  0.00000000000E+00  1.11502129158E-06  2.24910231600E-06  3.40256887279E-06
  4.57575233058E-06  5.76898972226E-06  6.98262384186E-06  8.21700334297E-06
  9.47248283894E-06  1.07494230047E-05  1.20481906805E-05  1.33691589772E-05
  1.47127073833E-05  1.60792218743E-05  1.74690950235E-05  1.88827261144E-05
  2.03205212559E-05  2.17828934987E-05  2.32702629542E-05  2.47830569146E-05
  2.63217099766E-05  2.78866641653E-05  2.94783690618E-05  3.10972819321E-05
  3.27438678585E-05  3.44185998733E-05  3.61219590947E-05  3.78544348647E-05
  3.96165248901E-05  4.14087353853E-05  4.32315812177E-05  4.50855860556E-05
  4.69712825187E-05  4.88892123312E-05  5.08399264772E-05  5.28239853590E-05
  5.48419589584E-05  5.68944270002E-05  5.89819791187E-05  6.11052150273E-05
  6.32647446905E-05  6.54611884994E-05  6.76951774498E-05  6.99673533236E-05
  7.22783688729E-05  7.46288880077E-05  7.70195859866E-05  7.94511496111E-05
  8.19242774222E-05  8.44396799016E-05  8.69980796760E-05  8.96002117239E-05
  9.22468235876E-05  9.49386755875E-05  9.76765410406E-05  1.00461206483E-04
  1.03293471894E-04  1.06174150930E-04  1.09104071153E-04  1.12084074274E-04
  1.15115016389E-04  1.18197768230E-04  1.21333215411E-04  1.24522258686E-04
  1.27765814205E-04  1.31064813778E-04  1.34420205146E-04  1.37832952246E-04
  1.41304035494E-04  1.44834452067E-04  1.48425216184E-04  1.52077359402E-04
  1.55791930911E-04  1.59569997836E-04  1.63412645543E-04  1.67320977949E-04
  1.71296117843E-04  1.75339207206E-04  1.79451407539E-04  1.83633900198E-04
  1.87887886731E-04  1.92214589227E-04  1.96615250665E-04  2.01091135267E-04
  2.05643528871E-04  2.10273739290E-04  2.14983096693E-04  2.19772953990E-04
  2.24644687212E-04  2.29599695914E-04  2.34639403575E-04  2.39765258004E-04
  2.44978731762E-04  2.50281322577E-04  2.55674553782E-04  2.61159974748E-04
  2.66739161329E-04  2.72413716319E-04  2.78185269907E-04  2.84055480148E-04
  2.90026033441E-04  2.96098645010E-04  3.02275059399E-04  3.08557050972E-04
  3.14946424423E-04  3.21445015297E-04  3.28054690512E-04  3.34777348900E-04
  3.41614921752E-04  3.48569373368E-04  3.55642701629E-04  3.62836938565E-04
  3.70154150942E-04  3.77596440851E-04  3.85165946321E-04  3.92864841922E-04
  4.00695339399E-04  4.08659688301E-04  4.16760176633E-04  4.24999131508E-04
  4.33378919818E-04  4.41901948915E-04  4.50570667299E-04  4.59387565325E-04
  4.68355175919E-04  4.77476075300E-04  4.86752883726E-04  4.96188266246E-04
  5.05784933462E-04  5.15545642311E-04  5.25473196856E-04  5.35570449090E-04
  5.45840299759E-04  5.56285699193E-04  5.66909648153E-04  5.77715198692E-04
  5.88705455039E-04  5.99883574479E-04  6.11252768270E-04  6.22816302563E-04
  6.34577499336E-04  6.46539737354E-04  6.58706453136E-04  6.71081141944E-04
  6.83667358787E-04  6.96468719442E-04  7.09488901491E-04  7.22731645381E-04
  7.36200755496E-04  7.49900101251E-04  7.63833618203E-04  7.78005309181E-04
  7.92419245439E-04  8.07079567820E-04  8.21990487952E-04  8.37156289454E-04
  8.52581329167E-04  8.68270038407E-04  8.84226924236E-04  9.00456570758E-04
  9.16963640437E-04  9.33752875435E-04  9.50829098974E-04  9.68197216723E-04
  9.85862218205E-04  1.00382917823E-03  1.02210325837E-03  1.04068970840E-03
  1.05959386786E-03  1.07882116754E-03  1.09837713107E-03  1.11826737651E-03
  1.13849761793E-03  1.15907366710E-03  1.18000143511E-03  1.20128693411E-03
  1.22293627901E-03  1.24495568924E-03  1.26735149056E-03  1.29013011685E-03
  1.31329811197E-03  1.33686213163E-03  1.36082894532E-03  1.38520543824E-03
  1.40999861329E-03  1.43521559306E-03  1.46086362191E-03  1.48695006801E-03
  1.51348242551E-03  1.54046831663E-03  1.56791549389E-03  1.59583184235E-03
  1.62422538182E-03  1.65310426923E-03  1.68247680090E-03  1.71235141502E-03
  1.74273669397E-03  1.77364136686E-03  1.80507431200E-03  1.83704455947E-03
  1.86956129370E-03  1.90263385612E-03  1.93627174784E-03  1.97048463238E-03
  2.00528233842E-03  2.04067486269E-03  2.07667237277E-03  2.11328521004E-03
  2.15052389267E-03  2.18839911860E-03  2.22692176867E-03  2.26610290967E-03
  2.30595379760E-03  2.34648588084E-03  2.38771080348E-03  2.42964040863E-03
  2.47228674187E-03  2.51566205466E-03  2.55977880788E-03  2.60464967543E-03
  2.65028754784E-03  2.69670553599E-03  2.74391697486E-03  2.79193542739E-03
  2.84077468834E-03  2.89044878831E-03  2.94097199769E-03  2.99235883082E-03
  3.04462405015E-03  3.09778267046E-03  3.15184996319E-03  3.20684146084E-03
  3.26277296139E-03  3.31966053289E-03  3.37752051803E-03  3.43636953886E-03
  3.49622450158E-03  3.55710260135E-03  3.61902132727E-03  3.68199846739E-03
  3.74605211384E-03  3.81120066797E-03  3.87746284572E-03  3.94485768292E-03
  4.01340454080E-03  4.08312311156E-03  4.15403342398E-03  4.22615584923E-03
  4.29951110668E-03  4.37412026989E-03  4.45000477261E-03  4.52718641500E-03
  4.60568736986E-03  4.68553018898E-03  4.76673780966E-03  4.84933356128E-03
  4.93334117201E-03  5.01878477560E-03  5.10568891834E-03  5.19407856613E-03
  5.28397911158E-03  5.37541638139E-03  5.46841664372E-03  5.56300661574E-03
  5.65921347132E-03  5.75706484883E-03  5.85658885907E-03  5.95781409337E-03
  6.06076963179E-03  6.16548505144E-03  6.27199043505E-03  6.38031637956E-03
  6.49049400490E-03  6.60255496298E-03  6.71653144675E-03  6.83245619944E-03
  6.95036252400E-03  7.07028429261E-03  7.19225595650E-03  7.31631255576E-03
  7.44248972945E-03  7.57082372583E-03  7.70135141277E-03  7.83411028835E-03
  7.96913849163E-03  8.10647481360E-03  8.24615870832E-03  8.38823030428E-03
  8.53273041590E-03  8.67970055525E-03  8.82918294403E-03  8.98122052562E-03
  9.13585697748E-03  9.29313672368E-03  9.45310494764E-03  9.61580760513E-03
  9.78129143748E-03  9.94960398499E-03  1.01207936006E-02  1.02949094638E-02
  1.04720015946E-02  1.06521208683E-02  1.08353190296E-02  1.10216487078E-02
  1.12111634318E-02  1.14039176455E-02  1.15999667235E-02  1.17993669868E-02
  1.20021757194E-02  1.22084511842E-02  1.24182526402E-02  1.26316403593E-02
  1.28486756437E-02  1.30694208433E-02  1.32939393740E-02  1.35222957357E-02
  1.37545555307E-02  1.39907854828E-02  1.42310534562E-02  1.44754284752E-02
  1.47239807442E-02  1.49767816673E-02  1.52339038694E-02  1.54954212167E-02
  1.57614088381E-02  1.60319431466E-02  1.63071018616E-02  1.65869640308E-02
  1.68716100532E-02  1.71611217021E-02  1.74555821486E-02  1.77550759855E-02
  1.80596892516E-02  1.83695094563E-02  1.86846256050E-02  1.90051282245E-02
  1.93311093889E-02  1.96626627465E-02  1.99998835459E-02  2.03428686643E-02
  2.06917166347E-02  2.10465276742E-02  2.14074037132E-02  2.17744484245E-02
  2.21477672529E-02  2.25274674457E-02  2.29136580833E-02  2.33064501109E-02
  2.37059563701E-02  2.41122916312E-02  2.45255726265E-02  2.49459180836E-02
  2.53734487596E-02  2.58082874759E-02  2.62505591532E-02  2.67003908476E-02
  2.71579117870E-02  2.76232534084E-02  2.80965493953E-02  2.85779357166E-02
  2.90675506652E-02  2.95655348980E-02  3.00720314763E-02  3.05871859068E-02
  3.11111461833E-02  3.16440628294E-02  3.21860889419E-02  3.27373802343E-02
  3.32980950820E-02  3.38683945674E-02  3.44484425266E-02  3.50384055962E-02
  3.56384532611E-02  3.62487579034E-02  3.68694948518E-02  3.75008424320E-02
  3.81429820180E-02  3.87960980840E-02  3.94603782577E-02  4.01360133738E-02
  4.08231975294E-02  4.15221281390E-02  4.22330059920E-02  4.29560353098E-02
  4.36914238047E-02  4.44393827396E-02  4.52001269886E-02  4.59738750988E-02
  4.67608493532E-02  4.75612758341E-02  4.83753844886E-02  4.92034091944E-02
  5.00455878269E-02  5.09021623278E-02  5.17733787743E-02  5.26594874502E-02
  5.35607429171E-02  5.44774040885E-02  5.54097343032E-02  5.63580014019E-02
  5.73224778031E-02  5.83034405825E-02  5.93011715514E-02  6.03159573389E-02
  6.13480894731E-02  6.23978644657E-02  6.34655838967E-02  6.45515545013E-02
  6.56560882578E-02  6.67795024773E-02  6.79221198951E-02  6.90842687629E-02
  7.02662829438E-02  7.14685020074E-02  7.26912713281E-02  7.39349421839E-02
  7.51998718572E-02  7.64864237379E-02  7.77949674275E-02  7.91258788452E-02
  8.04795403363E-02  8.18563407813E-02  8.32566757084E-02  8.46809474068E-02
  8.61295650421E-02  8.76029447742E-02  8.91015098765E-02  9.06256908579E-02
  9.21759255860E-02  9.37526594132E-02  9.53563453046E-02  9.69874439683E-02
  9.86464239872E-02  1.00333761954E-01  1.02049942609E-01  1.03795458977E-01
  1.05570812511E-01  1.07376513236E-01  1.09213079895E-01  1.11081040098E-01
  1.12980930474E-01  1.14913296824E-01  1.16878694280E-01  1.18877687462E-01
  1.20910850643E-01  1.22978767911E-01  1.25082033339E-01  1.27221251154E-01
  1.29397035912E-01  1.31610012674E-01  1.33860817186E-01  1.36150096059E-01
  1.38478506959E-01  1.40846718794E-01  1.43255411906E-01  1.45705278265E-01
  1.48197021670E-01  1.50731357951E-01  1.53309015173E-01  1.55930733849E-01
  1.58597267146E-01  1.61309381109E-01  1.64067854875E-01  1.66873480900E-01
  1.69727065186E-01  1.72629427513E-01  1.75581401674E-01  1.78583835713E-01
  1.81637592172E-01  1.84743548335E-01  1.87902596485E-01  1.91115644154E-01
  1.94383614388E-01  1.97707446013E-01  2.01088093901E-01  2.04526529246E-01
  2.08023739845E-01  2.11580730378E-01  2.15198522700E-01  2.18878156133E-01
  2.22620687764E-01  2.26427192750E-01  2.30298764627E-01  2.34236515621E-01
  2.38241576973E-01  2.42315099260E-01  2.46458252725E-01  2.50672227616E-01
  2.54958234527E-01  2.59317504744E-01  2.63751290602E-01  2.68260865841E-01
  2.72847525976E-01  2.77512588664E-01  2.82257394088E-01  2.87083305339E-01
  2.91991708808E-01  2.96984014583E-01  3.02061656859E-01  3.07226094343E-01
  3.12478810678E-01  3.17821314868E-01  3.23255141712E-01  3.28781852241E-01
  3.34403034174E-01  3.40120302367E-01  3.45935299281E-01  3.51849695451E-01
  3.57865189970E-01  3.63983510973E-01  3.70206416134E-01  3.76535693174E-01
  3.82973160371E-01  3.89520667087E-01  3.96180094292E-01  4.02953355110E-01
  4.09842395370E-01  4.16849194159E-01  4.23975764394E-01  4.31224153401E-01
  4.38596443502E-01  4.46094752614E-01  4.53721234856E-01  4.61478081167E-01
  4.69367519941E-01  4.77391817660E-01  4.85553279550E-01  4.93854250240E-01
  5.02297114440E-01  5.10884297620E-01  5.19618266712E-01  5.28501530816E-01
  5.37536641923E-01  5.46726195644E-01  5.56072831962E-01  5.65579235983E-01
  5.75248138713E-01  5.85082317841E-01  5.95084598537E-01  6.05257854262E-01
  6.15605007596E-01  6.26129031076E-01  6.36832948049E-01  6.47719833545E-01
  6.58792815154E-01  6.70055073930E-01  6.81509845302E-01  6.93160420004E-01
  7.05010145022E-01  7.17062424550E-01  7.29320720977E-01  7.41788555874E-01
  7.54469511008E-01  7.67367229372E-01  7.80485416231E-01  7.93827840187E-01
  8.07398334259E-01  8.21200796988E-01  8.35239193555E-01  8.49517556919E-01
  8.64039988978E-01  8.78810661745E-01  8.93833818549E-01  9.09113775251E-01
  9.24654921489E-01  9.40461721932E-01  9.56538717569E-01  9.72890527009E-01
  9.89521847810E-01  1.00643745783E+00  1.02364221659E+00  1.04114106670E+00
  1.05893903523E+00  1.07704123518E+00  1.09545286699E+00  1.11417921994E+00
  1.13322567376E+00  1.15259770013E+00  1.17230086426E+00  1.19234082647E+00
  1.21272334388E+00  1.23345427197E+00  1.25453956634E+00  1.27598528440E+00
  1.29779758707E+00  1.31998274062E+00  1.34254711841E+00  1.36549720274E+00
  1.38883958674E+00  1.41258097621E+00  1.43672819160E+00  1.46128816994E+00
  1.48626796684E+00  1.51167475850E+00  1.53751584380E+00  1.56379864639E+00
  1.59053071682E+00  1.61771973467E+00  1.64537351085E+00  1.67349998973E+00
  1.70210725152E+00  1.73120351452E+00  1.76079713753E+00  1.79089662223E+00
  1.82151061560E+00  1.85264791247E+00  1.88431745798E+00  1.91652835017E+00
  1.94928984260E+00  1.98261134703E+00  2.01650243606E+00  2.05097284597E+00
  2.08603247943E+00  2.12169140839E+00  2.15795987698E+00  2.19484830442E+00
  2.23236728804E+00  2.27052760633E+00  2.30934022200E+00  2.34881628517E+00
  2.38896713655E+00  2.42980431070E+00  2.47133953934E+00  2.51358475475E+00
  2.55655209316E+00  2.60025389826E+00  2.64470272472E+00  2.68991134184E+00
  2.73589273717E+00  2.78266012029E+00  2.83022692655E+00  2.87860682097E+00
  2.92781370218E+00  2.97786170634E+00  3.02876521129E+00  3.08053884061E+00
  3.13319746787E+00  3.18675622087E+00  3.24123048601E+00  3.29663591268E+00
  3.35298841780E+00  3.41030419035E+00  3.46859969604E+00  3.52789168204E+00
  3.58819718179E+00  3.64953351990E+00  3.71191831710E+00  3.77536949535E+00
  3.83990528294E+00  3.90554421975E+00  3.97230516257E+00  4.04020729055E+00
  4.10927011063E+00  4.17951346324E+00  4.25095752793E+00  4.32362282920E+00
  4.39753024238E+00  4.47270099964E+00  4.54915669609E+00  4.62691929596E+00
  4.70601113896E+00  4.78645494663E+00  4.86827382892E+00  4.95149129082E+00
  5.03613123909E+00  5.12221798915E+00  5.20977627206E+00  5.29883124161E+00
  5.38940848159E+00  5.48153401307E+00  5.57523430194E+00  5.67053626649E+00
  5.76746728510E+00  5.86605520421E+00  5.96632834620E+00  6.06831551761E+00
  6.17204601738E+00  6.27754964528E+00  6.38485671045E+00  6.49399804015E+00
  6.60500498855E+00  6.71790944582E+00  6.83274384721E+00  6.94954118243E+00
  7.06833500509E+00  7.18915944236E+00  7.31204920476E+00  7.43703959614E+00
  7.56416652383E+00  7.69346650892E+00  7.82497669680E+00  7.95873486781E+00
  8.09477944808E+00  8.23314952058E+00  8.37388483637E+00  8.51702582596E+00
  8.66261361100E+00  8.81069001604E+00  8.96129758056E+00  9.11447957122E+00
  9.27027999422E+00  9.42874360801E+00  9.58991593613E+00  9.75384328026E+00
  9.92057273356E+00  1.00901521942E+01  1.02626303790E+01  1.04380568377E+01
  1.06164819669E+01  1.07979570246E+01  1.09825341452E+01  1.11702663540E+01
  1.13612075830E+01  1.15554126858E+01  1.17529374538E+01  1.19538386320E+01
  1.21581739355E+01  1.23660020659E+01  1.25773827280E+01  1.27923766476E+01
  1.30110455882E+01  1.32334523692E+01  1.34596608837E+01  1.36897361170E+01
  1.39237441654E+01  1.41617522547E+01  1.44038287602E+01  1.46500432257E+01
  1.49004663839E+01  1.51551701765E+01  1.54142277749E+01  1.56777136014E+01
  1.59457033504E+01  1.62182740102E+01  1.64955038850E+01  1.67774726175E+01
  1.70642612121E+01  1.73559520574E+01  1.76526289507E+01  1.79543771213E+01
  1.82612832559E+01  1.85734355225E+01  1.88909235964E+01  1.92138386859E+01
  1.95422735581E+01  1.98763225662E+01  2.02160816758E+01  2.05616484932E+01
  2.09131222931E+01  2.12706040471E+01  2.16341964528E+01  2.20040039632E+01
  2.23801328169E+01  2.27626910684E+01  2.31517886193E+01  2.35475372498E+01
  2.39500506509E+01  2.43594444567E+01  2.47758362784E+01  2.51993457371E+01
  2.56300944989E+01  2.60682063097E+01  2.65138070304E+01  2.69670246736E+01
  2.74279894399E+01  2.78968337555E+01  2.83736923104E+01  2.88587020967E+01
  2.93520024485E+01  2.98537350813E+01  3.03640441333E+01  3.08830762063E+01
  3.14109804082E+01  3.19479083957E+01  3.24940144179E+01  3.30494553603E+01
  3.36143907904E+01  3.41889830033E+01  3.47733970681E+01  3.53678008758E+01
  3.59723651870E+01  3.65872636814E+01  3.72126730074E+01  3.78487728329E+01
  3.84957458973E+01  3.91537780632E+01  3.98230583707E+01  4.05037790910E+01
  4.11961357819E+01  4.19003273443E+01  4.26165560786E+01  4.33450277435E+01
  4.40859516149E+01  4.48395405458E+01  4.56060110278E+01  4.63855832530E+01
  4.71784811774E+01  4.79849325852E+01  4.88051691543E+01  4.96394265229E+01
  5.04879443568E+01  5.13509664190E+01  5.22287406388E+01  5.31215191839E+01
  5.40295585323E+01  5.49531195460E+01  5.58924675464E+01  5.68478723898E+01
  5.78196085457E+01  5.88079551750E+01  5.98131962105E+01  6.08356204387E+01
  6.18755215821E+01  6.29331983842E+01  6.40089546952E+01  6.51030995590E+01
  6.62159473022E+01  6.73478176244E+01  6.84990356902E+01  6.96699322222E+01
  7.08608435963E+01  7.20721119382E+01  7.33040852220E+01  7.45571173697E+01
  7.58315683532E+01  7.71278042977E+01  7.84461975866E+01  7.97871269688E+01
  8.11509776673E+01  8.25381414901E+01  8.39490169426E+01  8.53840093419E+01
  8.68435309335E+01  8.83280010098E+01  8.98378460303E+01  9.13734997443E+01
  9.29354033154E+01  9.45240054482E+01  9.61397625174E+01  9.77831386987E+01
  9.94546061023E+01  1.01154644908E+02  1.02883743505E+02  1.04642398630E+02
  1.06431115509E+02  1.08250408007E+02  1.10100798771E+02  1.11982819383E+02
  1.13897010510E+02  1.15843922064E+02  1.17824113353E+02  1.19838153249E+02
  1.21886620346E+02  1.23970103129E+02  1.26089200143E+02  1.28244520163E+02
  1.30436682370E+02  1.32666316531E+02  1.34934063176E+02  1.37240573786E+02
  1.39586510975E+02  1.41972548686E+02  1.44399372382E+02  1.46867679242E+02
  1.49378178363E+02  1.51931590963E+02  1.54528650588E+02  1.57170103322E+02
  1.59856708005E+02  1.62589236445E+02  1.65368473646E+02  1.68195218027E+02
  1.71070281659E+02  1.73994490491E+02  1.76968684592E+02  1.79993718390E+02
  1.83070460919E+02  1.86199796068E+02  1.89382622834E+02  1.92619855581E+02
  1.95912424304E+02  1.99261274895E+02  2.02667369412E+02
  </PP_R>
  <PP_RAB>
  1.10559865150E-06  1.12449731746E-06  1.14371902974E-06  1.16326931036E-06
  1.18315377575E-06  1.20337813832E-06  1.22394820814E-06  1.24486989460E-06
  1.26614920809E-06  1.28779226175E-06  1.30980527321E-06  1.33219456637E-06
  1.35496657325E-06  1.37812783581E-06  1.40168500783E-06  1.42564485683E-06
  1.45001426601E-06  1.47480023623E-06  1.50000988801E-06  1.52565046361E-06
  1.55172932907E-06  1.57825397634E-06  1.60523202543E-06  1.63267122662E-06
  1.66057946266E-06  1.68896475105E-06  1.71783524633E-06  1.74719924243E-06
  1.77706517506E-06  1.80744162413E-06  1.83833731621E-06  1.86976112702E-06
  1.90172208402E-06  1.93422936898E-06  1.96729232061E-06  2.00092043725E-06
  2.03512337961E-06  2.06991097354E-06  2.10529321284E-06  2.14128026213E-06
  2.17788245981E-06  2.21511032098E-06  2.25297454048E-06  2.29148599597E-06
  2.33065575104E-06  2.37049505841E-06  2.41101536314E-06  2.45222830593E-06
  2.49414572645E-06  2.53677966678E-06  2.58014237482E-06  2.62424630784E-06
  2.66910413604E-06  2.71472874621E-06  2.76113324541E-06  2.80833096476E-06
  2.85633546326E-06  2.90516053167E-06  2.95482019647E-06  3.00532872395E-06
  3.05670062420E-06  3.10895065540E-06  3.16209382796E-06  3.21614540889E-06
  3.27112092616E-06  3.32703617317E-06  3.38390721329E-06  3.44175038448E-06
  3.50058230395E-06  3.56041987297E-06  3.62128028173E-06  3.68318101424E-06
  3.74613985338E-06  3.81017488601E-06  3.87530450816E-06  3.94154743030E-06
  4.00892268274E-06  4.07744962109E-06  4.14714793182E-06  4.21803763790E-06
  4.29013910457E-06  4.36347304519E-06  4.43806052717E-06  4.51392297807E-06
  4.59108219168E-06  4.66956033437E-06  4.74937995139E-06  4.83056397336E-06
  4.91313572288E-06  4.99711892123E-06  5.08253769514E-06  5.16941658378E-06
  5.25778054577E-06  5.34765496637E-06  5.43906566476E-06  5.53203890147E-06
  5.62660138590E-06  5.72278028403E-06  5.82060322619E-06  5.92009831503E-06
  6.02129413356E-06  6.12421975337E-06  6.22890474301E-06  6.33537917645E-06
  6.44367364173E-06  6.55381924976E-06  6.66584764323E-06  6.77979100575E-06
  6.89568207102E-06  7.01355413232E-06  7.13344105200E-06  7.25537727126E-06
  7.37939782000E-06  7.50553832695E-06  7.63383502982E-06  7.76432478577E-06
  7.89704508199E-06  8.03203404644E-06  8.16933045885E-06  8.30897376181E-06
  8.45100407215E-06  8.59546219243E-06  8.74238962267E-06  8.89182857227E-06
  9.04382197216E-06  9.19841348709E-06  9.35564752822E-06  9.51556926585E-06
  9.67822464239E-06  9.84366038559E-06  1.00119240219E-05  1.01830638903E-05
  1.03571291559E-05  1.05341698243E-05  1.07142367558E-05  1.08973816802E-05
  1.10836572115E-05  1.12731168630E-05  1.14658150629E-05  1.16618071695E-05
  1.18611494877E-05  1.20638992846E-05  1.22701148063E-05  1.24798552946E-05
  1.26931810038E-05  1.29101532183E-05  1.31308342700E-05  1.33552875563E-05
  1.35835775582E-05  1.38157698592E-05  1.40519311634E-05  1.42921293156E-05
  1.45364333200E-05  1.47849133603E-05  1.50376408202E-05  1.52946883033E-05
  1.55561296543E-05  1.58220399804E-05  1.60924956724E-05  1.63675744271E-05
  1.66473552691E-05  1.69319185741E-05  1.72213460917E-05  1.75157209688E-05
  1.78151277736E-05  1.81196525199E-05  1.84293826917E-05  1.87444072685E-05
  1.90648167508E-05  1.93907031860E-05  1.97221601951E-05  2.00592829991E-05
  2.04021684470E-05  2.07509150430E-05  2.11056229754E-05  2.14663941449E-05
  2.18333321940E-05  2.22065425370E-05  2.25861323899E-05  2.29722108016E-05
  2.33648886849E-05  2.37642788486E-05  2.41704960298E-05  2.45836569267E-05
  2.50038802326E-05  2.54312866694E-05  2.58659990228E-05  2.63081421772E-05
  2.67578431517E-05  2.72152311367E-05  2.76804375311E-05  2.81535959795E-05
  2.86348424112E-05  2.91243150790E-05  2.96221545990E-05  3.01285039908E-05
  3.06435087188E-05  3.11673167339E-05  3.17000785159E-05  3.22419471171E-05
  3.27930782057E-05  3.33536301112E-05  3.39237638692E-05  3.45036432680E-05
  3.50934348960E-05  3.56933081886E-05  3.63034354780E-05  3.69239920420E-05
  3.75551561543E-05  3.81971091363E-05  3.88500354086E-05  3.95141225442E-05
  4.01895613227E-05  4.08765457844E-05  4.15752732867E-05  4.22859445605E-05
  4.30087637680E-05  4.37439385610E-05  4.44916801410E-05  4.52522033198E-05
  4.60257265810E-05  4.68124721428E-05  4.76126660219E-05  4.84265380987E-05
  4.92543221828E-05  5.00962560805E-05  5.09525816632E-05  5.18235449366E-05
  5.27093961116E-05  5.36103896762E-05  5.45267844683E-05  5.54588437505E-05
  5.64068352853E-05  5.73710314124E-05  5.83517091266E-05  5.93491501577E-05
  6.03636410511E-05  6.13954732506E-05  6.24449431814E-05  6.35123523361E-05
  6.45980073606E-05  6.57022201426E-05  6.68253079010E-05  6.79675932773E-05
  6.91294044278E-05  7.03110751186E-05  7.15129448207E-05  7.27353588079E-05
  7.39786682563E-05  7.52432303445E-05  7.65294083568E-05  7.78375717872E-05
  7.91680964457E-05  8.05213645664E-05  8.18977649169E-05  8.32976929105E-05
  8.47215507195E-05  8.61697473905E-05  8.76426989624E-05  8.91408285859E-05
  9.06645666444E-05  9.22143508785E-05  9.37906265111E-05  9.53938463759E-05
  9.70244710467E-05  9.86829689706E-05  1.00369816602E-04  1.02085498539E-04
  1.03830507665E-04  1.05605345286E-04  1.07410521279E-04  1.09246554237E-04
  1.11113971616E-04  1.13013309889E-04  1.14945114698E-04  1.16909941015E-04
  1.18908353295E-04  1.20940925645E-04  1.23008241982E-04  1.25110896207E-04
  1.27249492371E-04  1.29424644852E-04  1.31636978529E-04  1.33887128962E-04
  1.36175742577E-04  1.38503476848E-04  1.40871000487E-04  1.43278993639E-04
  1.45728148073E-04  1.48219167385E-04  1.50752767194E-04  1.53329675357E-04
  1.55950632168E-04  1.58616390578E-04  1.61327716408E-04  1.64085388569E-04
  1.66890199287E-04  1.69742954329E-04  1.72644473238E-04  1.75595589563E-04
  1.78597151103E-04  1.81650020148E-04  1.84755073730E-04  1.87913203868E-04
  1.91125317834E-04  1.94392338406E-04  1.97715204134E-04  2.01094869615E-04
  2.04532305760E-04  2.08028500079E-04  2.11584456960E-04  2.15201197962E-04
  2.18879762103E-04  2.22621206165E-04  2.26426604991E-04  2.30297051800E-04
  2.34233658494E-04  2.38237555987E-04  2.42309894519E-04  2.46451843995E-04
  2.50664594316E-04  2.54949355725E-04  2.59307359150E-04  2.63739856562E-04
  2.68248121331E-04  2.72833448595E-04  2.77497155628E-04  2.82240582225E-04
  2.87065091079E-04  2.91972068179E-04  2.96962923205E-04  3.02039089931E-04
  3.07202026644E-04  3.12453216554E-04  3.17794168227E-04  3.23226416015E-04
  3.28751520498E-04  3.34371068931E-04  3.40086675701E-04  3.45899982793E-04
  3.51812660256E-04  3.57826406688E-04  3.63942949723E-04  3.70164046525E-04
  3.76491484294E-04  3.82927080782E-04  3.89472684810E-04  3.96130176803E-04
  4.02901469331E-04  4.09788507654E-04  4.16793270286E-04  4.23917769559E-04
  4.31164052205E-04  4.38534199939E-04  4.46030330062E-04  4.53654596069E-04
  4.61409188262E-04  4.69296334387E-04  4.77318300267E-04  4.85477390458E-04
  4.93775948909E-04  5.02216359635E-04  5.10801047403E-04  5.19532478427E-04
  5.28413161080E-04  5.37445646608E-04  5.46632529870E-04  5.55976450080E-04
  5.65480091566E-04  5.75146184540E-04  5.84977505883E-04  5.94976879943E-04
  6.05147179348E-04  6.15491325827E-04  6.26012291054E-04  6.36713097499E-04
  6.47596819295E-04  6.58666583126E-04  6.69925569121E-04  6.81377011767E-04
  6.93024200845E-04  7.04870482364E-04  7.16919259533E-04  7.29173993733E-04
  7.41638205511E-04  7.54315475593E-04  7.67209445916E-04  7.80323820666E-04
  7.93662367350E-04  8.07228917873E-04  8.21027369645E-04  8.35061686692E-04
  8.49335900803E-04  8.63854112682E-04  8.78620493132E-04  8.93639284247E-04
  9.08914800636E-04  9.24451430659E-04  9.40253637690E-04  9.56325961395E-04
  9.72673019044E-04  9.89299506829E-04  1.00621020122E-03  1.02340996033E-03
  1.04090372531E-03  1.05869652180E-03  1.07679346131E-03  1.09519974274E-03
  1.11392065387E-03  1.13296157284E-03  1.15232796975E-03  1.17202540819E-03
  1.19205954685E-03  1.21243614115E-03  1.23316104489E-03  1.25424021194E-03
  1.27567969793E-03  1.29748566201E-03  1.31966436861E-03  1.34222218925E-03
  1.36516560435E-03  1.38850120511E-03  1.41223569540E-03  1.43637589368E-03
  1.46092873496E-03  1.48590127279E-03  1.51130068130E-03  1.53713425726E-03
  1.56340942214E-03  1.59013372430E-03  1.61731484110E-03  1.64496058117E-03
  1.67307888657E-03  1.70167783517E-03  1.73076564287E-03  1.76035066606E-03
  1.79044140392E-03  1.82104650096E-03  1.85217474942E-03  1.88383509184E-03
  1.91603662363E-03  1.94878859566E-03  1.98210041695E-03  2.01598165733E-03
  2.05044205023E-03  2.08549149545E-03  2.12114006203E-03  2.15739799110E-03
  2.19427569886E-03  2.23178377957E-03  2.26993300858E-03  2.30873434541E-03
  2.34819893694E-03  2.38833812059E-03  2.42916342757E-03  2.47068658619E-03
  2.51291952525E-03  2.55587437747E-03  2.59956348294E-03  2.64399939270E-03
  2.68919487232E-03  2.73516290558E-03  2.78191669822E-03  2.82946968170E-03
  2.87783551706E-03  2.92702809888E-03  2.97706155923E-03  3.02795027176E-03
  3.07970885580E-03  3.13235218061E-03  3.18589536958E-03  3.24035380465E-03
  3.29574313066E-03  3.35207925989E-03  3.40937837663E-03  3.46765694181E-03
  3.52693169772E-03  3.58721967285E-03  3.64853818679E-03  3.71090485514E-03
  3.77433759465E-03  3.83885462832E-03  3.90447449063E-03  3.97121603291E-03
  4.03909842871E-03  4.10814117933E-03  4.17836411941E-03  4.24978742265E-03
  4.32243160758E-03  4.39631754347E-03  4.47146645631E-03  4.54789993494E-03
  4.62563993722E-03  4.70470879634E-03  4.78512922726E-03  4.86692433321E-03
  4.95011761234E-03  5.03473296447E-03  5.12079469796E-03  5.20832753667E-03
  5.29735662710E-03  5.38790754557E-03  5.48000630563E-03  5.57367936545E-03
  5.66895363550E-03  5.76585648623E-03  5.86441575596E-03  5.96465975885E-03
  6.06661729306E-03  6.17031764903E-03  6.27579061787E-03  6.38306649990E-03
  6.49217611342E-03  6.60315080351E-03  6.71602245105E-03  6.83082348188E-03
  6.94758687611E-03  7.06634617761E-03  7.18713550363E-03  7.30998955460E-03
  7.43494362412E-03  7.56203360906E-03  7.69129601993E-03  7.82276799132E-03
  7.95648729257E-03  8.09249233865E-03  8.23082220119E-03  8.37151661967E-03
  8.51461601288E-03  8.66016149051E-03  8.80819486495E-03  8.95875866333E-03
  9.11189613972E-03  9.26765128754E-03  9.42606885224E-03  9.58719434412E-03
  9.75107405141E-03  9.91775505359E-03  1.00872852349E-02  1.02597132980E-02
  1.04350887783E-02  1.06134620576E-02  1.07948843791E-02  1.09794078621E-02
  1.11670855165E-02  1.13579712585E-02  1.15521199258E-02  1.17495872936E-02
  1.19504300905E-02  1.21547060148E-02  1.23624737508E-02  1.25737929863E-02
  1.27887244293E-02  1.30073298253E-02  1.32296719754E-02  1.34558147544E-02
  1.36858231285E-02  1.39197631747E-02  1.41577020996E-02  1.43997082583E-02
  1.46458511745E-02  1.48962015604E-02  1.51508313368E-02  1.54098136538E-02
  1.56732229120E-02  1.59411347839E-02  1.62136262354E-02  1.64907755479E-02
  1.67726623412E-02  1.70593675958E-02  1.73509736765E-02  1.76475643563E-02
  1.79492248398E-02  1.82560417882E-02  1.85681033442E-02  1.88854991570E-02
  1.92083204082E-02  1.95366598382E-02  1.98706117725E-02  2.02102721491E-02
  2.05557385457E-02  2.09071102083E-02  2.12644880790E-02  2.16279748258E-02
  2.19976748711E-02  2.23736944228E-02  2.27561415039E-02  2.31451259841E-02
  2.35407596112E-02  2.39431560429E-02  2.43524308801E-02  2.47687016994E-02
  2.51920880874E-02  2.56227116748E-02  2.60606961715E-02  2.65061674019E-02
  2.69592533413E-02  2.74200841525E-02  2.78887922232E-02  2.83655122043E-02